LAMMPS (8 Apr 2021)
# Diffusion - Migration - Potential - Nucleation - Reaction Modeling
# Cycling
# nucleation equation implementation with nucleation rate
# 6/8/23
# Madison Morey

log 		${dname}/log.lammps
log 		/projectnb/ryanlab/mmorey/LAMMPS_BATTERY_SEI/Case2/newresults/SEI_Case2_20Feb2025_varyingSE_2726408/log.lammps
